6
pbc=[F, F, F] list_num_par=6 energy=-1.27112223 iter=10000 frozen=false Lattice="15.00000000 0.00000000 0.00000000 0.00000000 15.00000000 0.00000000 0.00000000 0.00000000 15.00000000" energy_frozen_part=0.00000000 Properties=species:S:1:pos:R:3:velocities:R:3:Z:I:1
H         8.77348631       9.92380085       8.87038543         0.00000000       0.00000000       0.00000000          1
H         7.73494217       8.96958109      11.27722521         0.00000000       0.00000000       0.00000000          1
H         7.47192407      11.67632368      10.61052061         0.00000000       0.00000000       0.00000000          1
H         6.27101528      10.96620348       8.18703225         0.00000000       0.00000000       0.00000000          1
H         6.53149197       8.26244336       8.84935989         0.00000000       0.00000000       0.00000000          1
H         5.23317688      10.00422389      10.59516424         0.00000000       0.00000000       0.00000000          1
6
pbc=[F, F, F] list_num_par=6 energy=-1.27112243 iter=10000 frozen=false Lattice="15.00000000 0.00000000 0.00000000 0.00000000 15.00000000 0.00000000 0.00000000 0.00000000 15.00000000" energy_frozen_part=0.00000000 Properties=species:S:1:pos:R:3:velocities:R:3:Z:I:1
H        11.32045309       1.34434688       4.67884708         0.00000000       0.00000000       0.00000000          1
H        10.54076287       3.65414830       3.30311376         0.00000000       0.00000000       0.00000000          1
H        12.91452748       3.63335050       4.77239483         0.00000000       0.00000000       0.00000000          1
H         9.13324689       2.84071596       5.56667567         0.00000000       0.00000000       0.00000000          1
H        10.73396127       5.13018978       5.66032407         0.00000000       0.00000000       0.00000000          1
H        11.50185892       2.82979799       7.04398964         0.00000000       0.00000000       0.00000000          1
6
pbc=[F, F, F] list_num_par=6 energy=-1.27112256 iter=10000 frozen=false Lattice="15.00000000 0.00000000 0.00000000 0.00000000 15.00000000 0.00000000 0.00000000 0.00000000 15.00000000" energy_frozen_part=0.00000000 Properties=species:S:1:pos:R:3:velocities:R:3:Z:I:1
H         8.37379980       9.66914601       8.47014327         0.00000000       0.00000000       0.00000000          1
H         7.40375045       8.62972589      10.88214915         0.00000000       0.00000000       0.00000000          1
H         7.77971150      11.38309169      10.59014649         0.00000000       0.00000000       0.00000000          1
H         6.15538215      11.36886764       8.31271987         0.00000000       0.00000000       0.00000000          1
H         5.79098819       8.61743628       8.59349488         0.00000000       0.00000000       0.00000000          1
H         5.19508275      10.32955027      10.72325717         0.00000000       0.00000000       0.00000000          1
6
pbc=[F, F, F] list_num_par=6 energy=-1.27112271 iter=10000 frozen=false Lattice="15.00000000 0.00000000 0.00000000 0.00000000 15.00000000 0.00000000 0.00000000 0.00000000 15.00000000" energy_frozen_part=0.00000000 Properties=species:S:1:pos:R:3:velocities:R:3:Z:I:1
H        11.09560116       1.29706542       4.30488087         0.00000000       0.00000000       0.00000000          1
H        10.51952759       3.83887867       3.29918865         0.00000000       0.00000000       0.00000000          1
H        12.89354149       3.40272564       4.69565502         0.00000000       0.00000000       0.00000000          1
H         9.05453726       2.82206724       5.44702808         0.00000000       0.00000000       0.00000000          1
H        10.85254291       4.92346201       5.85098449         0.00000000       0.00000000       0.00000000          1
H        11.42605468       2.39001654       6.85471123         0.00000000       0.00000000       0.00000000          1
6
pbc=[F, F, F] list_num_par=6 energy=-1.27112278 iter=10000 frozen=false Lattice="15.00000000 0.00000000 0.00000000 0.00000000 15.00000000 0.00000000 0.00000000 0.00000000 15.00000000" energy_frozen_part=0.00000000 Properties=species:S:1:pos:R:3:velocities:R:3:Z:I:1
H         8.41253829       9.71318115       8.46006908         0.00000000       0.00000000       0.00000000          1
H         7.45534126       8.72763159      10.89134159         0.00000000       0.00000000       0.00000000          1
H         7.76528199      11.48275185      10.52458263         0.00000000       0.00000000       0.00000000          1
H         6.16158192      11.36077620       8.24164575         0.00000000       0.00000000       0.00000000          1
H         5.84916242       8.61067591       8.59860727         0.00000000       0.00000000       0.00000000          1
H         5.20081361      10.37150057      10.67210713         0.00000000       0.00000000       0.00000000          1
6
pbc=[F, F, F] list_num_par=6 energy=-1.27112279 iter=10000 frozen=false Lattice="15.00000000 0.00000000 0.00000000 0.00000000 15.00000000 0.00000000 0.00000000 0.00000000 15.00000000" energy_frozen_part=0.00000000 Properties=species:S:1:pos:R:3:velocities:R:3:Z:I:1
H         8.43818991       9.59592611       8.54459580         0.00000000       0.00000000       0.00000000          1
H         7.43607789       8.65535464      10.98461137         0.00000000       0.00000000       0.00000000          1
H         7.86507742      11.38895090      10.61153444         0.00000000       0.00000000       0.00000000          1
H         6.25485030      11.33053009       8.33171884         0.00000000       0.00000000       0.00000000          1
H         5.83378832       8.59377206       8.69135061         0.00000000       0.00000000       0.00000000          1
H         5.25988504      10.39121627      10.76163287         0.00000000       0.00000000       0.00000000          1
6
pbc=[F, F, F] list_num_par=6 energy=-1.27112290 iter=10000 frozen=false Lattice="15.00000000 0.00000000 0.00000000 0.00000000 15.00000000 0.00000000 0.00000000 0.00000000 15.00000000" energy_frozen_part=0.00000000 Properties=species:S:1:pos:R:3:velocities:R:3:Z:I:1
H         8.36657316       9.68870561       8.47756595         0.00000000       0.00000000       0.00000000          1
H         7.40484046       8.61376936      10.86669389         0.00000000       0.00000000       0.00000000          1
H         7.76681181      11.38182951      10.61329457         0.00000000       0.00000000       0.00000000          1
H         6.14779951      11.38172861       8.32986662         0.00000000       0.00000000       0.00000000          1
H         5.78395861       8.62475932       8.58805047         0.00000000       0.00000000       0.00000000          1
H         5.19274494      10.31575922      10.72970761         0.00000000       0.00000000       0.00000000          1
6
pbc=[F, F, F] list_num_par=6 energy=-1.27112297 iter=10000 frozen=false Lattice="15.00000000 0.00000000 0.00000000 0.00000000 15.00000000 0.00000000 0.00000000 0.00000000 15.00000000" energy_frozen_part=0.00000000 Properties=species:S:1:pos:R:3:velocities:R:3:Z:I:1
H        11.09139699       1.29416583       4.31243262         0.00000000       0.00000000       0.00000000          1
H        10.51953767       3.83844597       3.30164538         0.00000000       0.00000000       0.00000000          1
H        12.88628352       3.39790962       4.71928162         0.00000000       0.00000000       0.00000000          1
H         9.05083436       2.83283005       5.44844563         0.00000000       0.00000000       0.00000000          1
H        10.84315070       4.92878710       5.85269256         0.00000000       0.00000000       0.00000000          1
H        11.42168588       2.38315042       6.86502314         0.00000000       0.00000000       0.00000000          1
6
pbc=[F, F, F] list_num_par=6 energy=-1.27112312 iter=10000 frozen=false Lattice="15.00000000 0.00000000 0.00000000 0.00000000 15.00000000 0.00000000 0.00000000 0.00000000 15.00000000" energy_frozen_part=0.00000000 Properties=species:S:1:pos:R:3:velocities:R:3:Z:I:1
H         8.44253875       9.64346101       8.55467771         0.00000000       0.00000000       0.00000000          1
H         7.45153572       8.67855133      10.97870166         0.00000000       0.00000000       0.00000000          1
H         7.83225583      11.41476526      10.61892815         0.00000000       0.00000000       0.00000000          1
H         6.23507638      11.34727524       8.32513024         0.00000000       0.00000000       0.00000000          1
H         5.85304570       8.60440964       8.69053365         0.00000000       0.00000000       0.00000000          1
H         5.24514796      10.38011631      10.75372368         0.00000000       0.00000000       0.00000000          1
6
pbc=[F, F, F] list_num_par=6 energy=-1.27112318 iter=10000 frozen=false Lattice="15.00000000 0.00000000 0.00000000 0.00000000 15.00000000 0.00000000 0.00000000 0.00000000 15.00000000" energy_frozen_part=0.00000000 Properties=species:S:1:pos:R:3:velocities:R:3:Z:I:1
H        10.88258782       1.18075923       4.83955019         0.00000000       0.00000000       0.00000000          1
H        10.53339546       3.51593137       3.33286825         0.00000000       0.00000000       0.00000000          1
H        12.81853543       3.19755271       4.90724212         0.00000000       0.00000000       0.00000000          1
H         8.93510039       3.03325135       5.57279125         0.00000000       0.00000000       0.00000000          1
H        10.86660312       5.05185328       5.64695252         0.00000000       0.00000000       0.00000000          1
H        11.22041148       2.72514630       7.14529033         0.00000000       0.00000000       0.00000000          1
6
pbc=[F, F, F] list_num_par=6 energy=-1.27112321 iter=10000 frozen=false Lattice="15.00000000 0.00000000 0.00000000 0.00000000 15.00000000 0.00000000 0.00000000 0.00000000 15.00000000" energy_frozen_part=0.00000000 Properties=species:S:1:pos:R:3:velocities:R:3:Z:I:1
H        11.29817217       1.33769556       4.67111893         0.00000000       0.00000000       0.00000000          1
H        10.54784681       3.66467593       3.31588102         0.00000000       0.00000000       0.00000000          1
H        12.92389072       3.61220930       4.77963030         0.00000000       0.00000000       0.00000000          1
H         9.13638166       2.84461952       5.58414304         0.00000000       0.00000000       0.00000000          1
H        10.75524508       5.12555551       5.69398632         0.00000000       0.00000000       0.00000000          1
H        11.51025031       2.79563681       7.04573985         0.00000000       0.00000000       0.00000000          1
6
pbc=[F, F, F] list_num_par=6 energy=-1.27112330 iter=10000 frozen=false Lattice="15.00000000 0.00000000 0.00000000 0.00000000 15.00000000 0.00000000 0.00000000 0.00000000 15.00000000" energy_frozen_part=0.00000000 Properties=species:S:1:pos:R:3:velocities:R:3:Z:I:1
H        10.96729690       1.15336964       4.85541044         0.00000000       0.00000000       0.00000000          1
H        10.54141892       3.45782786       3.34036911         0.00000000       0.00000000       0.00000000          1
H        12.87562481       3.20148267       4.85194104         0.00000000       0.00000000       0.00000000          1
H         8.99405722       2.98259709       5.61653377         0.00000000       0.00000000       0.00000000          1
H        10.90088653       5.02666485       5.62182830         0.00000000       0.00000000       0.00000000          1
H        11.32303634       2.72069884       7.13440272         0.00000000       0.00000000       0.00000000          1
6
pbc=[F, F, F] list_num_par=6 energy=-1.27112346 iter=10000 frozen=false Lattice="15.00000000 0.00000000 0.00000000 0.00000000 15.00000000 0.00000000 0.00000000 0.00000000 15.00000000" energy_frozen_part=0.00000000 Properties=species:S:1:pos:R:3:velocities:R:3:Z:I:1
H        11.32463779       1.34573188       4.66748117         0.00000000       0.00000000       0.00000000          1
H        10.56066964       3.67036411       3.32260516         0.00000000       0.00000000       0.00000000          1
H        12.93428113       3.62649863       4.78649938         0.00000000       0.00000000       0.00000000          1
H         9.14849292       2.83241750       5.58286360         0.00000000       0.00000000       0.00000000          1
H        10.74835641       5.11784964       5.71044748         0.00000000       0.00000000       0.00000000          1
H        11.52409266       2.79225167       7.04634631         0.00000000       0.00000000       0.00000000          1
6
pbc=[F, F, F] list_num_par=6 energy=-1.27112355 iter=10000 frozen=false Lattice="15.00000000 0.00000000 0.00000000 0.00000000 15.00000000 0.00000000 0.00000000 0.00000000 15.00000000" energy_frozen_part=0.00000000 Properties=species:S:1:pos:R:3:velocities:R:3:Z:I:1
H         8.82783336       9.78595615       8.75746712         0.00000000       0.00000000       0.00000000          1
H         7.65341660       8.86082930      11.12014020         0.00000000       0.00000000       0.00000000          1
H         7.46391764      11.56242924      10.42383935         0.00000000       0.00000000       0.00000000          1
H         6.37306795      10.85063533       7.94832940         0.00000000       0.00000000       0.00000000          1
H         6.56972011       8.14801529       8.64882507         0.00000000       0.00000000       0.00000000          1
H         5.20767864       9.93386504      10.31269778         0.00000000       0.00000000       0.00000000          1
6
pbc=[F, F, F] list_num_par=6 energy=-1.27112362 iter=10000 frozen=false Lattice="15.00000000 0.00000000 0.00000000 0.00000000 15.00000000 0.00000000 0.00000000 0.00000000 15.00000000" energy_frozen_part=0.00000000 Properties=species:S:1:pos:R:3:velocities:R:3:Z:I:1
H         8.36292890       9.65088796       8.46289051         0.00000000       0.00000000       0.00000000          1
H         7.41825300       8.63861046      10.89525060         0.00000000       0.00000000       0.00000000          1
H         7.77620801      11.38820108      10.57105312         0.00000000       0.00000000       0.00000000          1
H         6.14762004      11.34404422       8.30463340         0.00000000       0.00000000       0.00000000          1
H         5.78842679       8.59452080       8.62086683         0.00000000       0.00000000       0.00000000          1
H         5.20061567      10.32183014      10.73127171         0.00000000       0.00000000       0.00000000          1
6
pbc=[F, F, F] list_num_par=6 energy=-1.27112366 iter=10000 frozen=false Lattice="15.00000000 0.00000000 0.00000000 0.00000000 15.00000000 0.00000000 0.00000000 0.00000000 15.00000000" energy_frozen_part=0.00000000 Properties=species:S:1:pos:R:3:velocities:R:3:Z:I:1
H         8.36938497       9.69058275       8.44649144         0.00000000       0.00000000       0.00000000          1
H         7.43807730       8.63767349      10.86343047         0.00000000       0.00000000       0.00000000          1
H         7.77851113      11.40187948      10.57996553         0.00000000       0.00000000       0.00000000          1
H         6.14472328      11.36658656       8.31454343         0.00000000       0.00000000       0.00000000          1
H         5.79898096       8.60478198       8.59742395         0.00000000       0.00000000       0.00000000          1
H         5.20721186      10.32165585      10.72482395         0.00000000       0.00000000       0.00000000          1
6
pbc=[F, F, F] list_num_par=6 energy=-1.27112390 iter=10000 frozen=false Lattice="15.00000000 0.00000000 0.00000000 0.00000000 15.00000000 0.00000000 0.00000000 0.00000000 15.00000000" energy_frozen_part=0.00000000 Properties=species:S:1:pos:R:3:velocities:R:3:Z:I:1
H        11.09532939       1.29917405       4.30891003         0.00000000       0.00000000       0.00000000          1
H        10.52097267       3.83476240       3.30415115         0.00000000       0.00000000       0.00000000          1
H        12.88821891       3.40676515       4.71901488         0.00000000       0.00000000       0.00000000          1
H         9.04465902       2.82680099       5.45414533         0.00000000       0.00000000       0.00000000          1
H        10.84360590       4.92678455       5.85459100         0.00000000       0.00000000       0.00000000          1
H        11.41283386       2.38507946       6.86375736         0.00000000       0.00000000       0.00000000          1
6
pbc=[F, F, F] list_num_par=6 energy=-1.27112394 iter=10000 frozen=false Lattice="15.00000000 0.00000000 0.00000000 0.00000000 15.00000000 0.00000000 0.00000000 0.00000000 15.00000000" energy_frozen_part=0.00000000 Properties=species:S:1:pos:R:3:velocities:R:3:Z:I:1
H         8.36152049       9.68333847       8.44818318         0.00000000       0.00000000       0.00000000          1
H         7.41763654       8.62352255      10.85224835         0.00000000       0.00000000       0.00000000          1
H         7.77624292      11.38269748      10.58579632         0.00000000       0.00000000       0.00000000          1
H         6.14840274      11.37541432       8.32198547         0.00000000       0.00000000       0.00000000          1
H         5.78201304       8.61856305       8.59011293         0.00000000       0.00000000       0.00000000          1
H         5.19535201      10.31302546      10.73423825         0.00000000       0.00000000       0.00000000          1
6
pbc=[F, F, F] list_num_par=6 energy=-1.27112435 iter=10000 frozen=false Lattice="15.00000000 0.00000000 0.00000000 0.00000000 15.00000000 0.00000000 0.00000000 0.00000000 15.00000000" energy_frozen_part=0.00000000 Properties=species:S:1:pos:R:3:velocities:R:3:Z:I:1
H         8.35068992       9.63417552       8.45870513         0.00000000       0.00000000       0.00000000          1
H         7.42175860       8.60962699      10.88490896         0.00000000       0.00000000       0.00000000          1
H         7.75795016      11.36550112      10.57802834         0.00000000       0.00000000       0.00000000          1
H         6.12065367      11.30458965       8.31878132         0.00000000       0.00000000       0.00000000          1
H         5.78210724       8.54771027       8.62681811         0.00000000       0.00000000       0.00000000          1
H         5.19495269      10.27608316      10.74282466         0.00000000       0.00000000       0.00000000          1
6
pbc=[F, F, F] list_num_par=6 energy=-1.27112493 iter=10000 frozen=false Lattice="15.00000000 0.00000000 0.00000000 0.00000000 15.00000000 0.00000000 0.00000000 0.00000000 15.00000000" energy_frozen_part=0.00000000 Properties=species:S:1:pos:R:3:velocities:R:3:Z:I:1
H         8.44202358       9.61658921       8.53752601         0.00000000       0.00000000       0.00000000          1
H         7.46015775       8.67033742      10.98413925         0.00000000       0.00000000       0.00000000          1
H         7.87355704      11.40188947      10.60956990         0.00000000       0.00000000       0.00000000          1
H         6.24932788      11.33684482       8.33567679         0.00000000       0.00000000       0.00000000          1
H         5.84554253       8.59675082       8.70775166         0.00000000       0.00000000       0.00000000          1
H         5.26618490      10.38906212      10.77013164         0.00000000       0.00000000       0.00000000          1
6
pbc=[F, F, F] list_num_par=6 energy=-1.27112494 iter=10000 frozen=false Lattice="15.00000000 0.00000000 0.00000000 0.00000000 15.00000000 0.00000000 0.00000000 0.00000000 15.00000000" energy_frozen_part=0.00000000 Properties=species:S:1:pos:R:3:velocities:R:3:Z:I:1
H        11.30396291       1.35278828       4.66058933         0.00000000       0.00000000       0.00000000          1
H        10.54163169       3.66512899       3.30114105         0.00000000       0.00000000       0.00000000          1
H        12.93186881       3.61733320       4.75081292         0.00000000       0.00000000       0.00000000          1
H         9.14631906       2.86430038       5.58173182         0.00000000       0.00000000       0.00000000          1
H        10.77830861       5.13637029       5.67351318         0.00000000       0.00000000       0.00000000          1
H        11.53523382       2.81702777       7.03152918         0.00000000       0.00000000       0.00000000          1
6
pbc=[F, F, F] list_num_par=6 energy=-1.27112496 iter=10000 frozen=false Lattice="15.00000000 0.00000000 0.00000000 0.00000000 15.00000000 0.00000000 0.00000000 0.00000000 15.00000000" energy_frozen_part=0.00000000 Properties=species:S:1:pos:R:3:velocities:R:3:Z:I:1
H         8.36480494       9.70338015       8.45039344         0.00000000       0.00000000       0.00000000          1
H         7.44344292       8.67902808      10.87978334         0.00000000       0.00000000       0.00000000          1
H         7.75413934      11.43431700      10.55025840         0.00000000       0.00000000       0.00000000          1
H         6.11650859      11.34452113       8.29092899         0.00000000       0.00000000       0.00000000          1
H         5.80988412       8.58686760       8.61567801         0.00000000       0.00000000       0.00000000          1
H         5.18679216      10.32084321      10.71431023         0.00000000       0.00000000       0.00000000          1
6
pbc=[F, F, F] list_num_par=6 energy=-1.27112498 iter=10000 frozen=false Lattice="15.00000000 0.00000000 0.00000000 0.00000000 15.00000000 0.00000000 0.00000000 0.00000000 15.00000000" energy_frozen_part=0.00000000 Properties=species:S:1:pos:R:3:velocities:R:3:Z:I:1
H        11.31136330       1.33688886       4.64490902         0.00000000       0.00000000       0.00000000          1
H        10.55727379       3.65831796       3.28998784         0.00000000       0.00000000       0.00000000          1
H        12.94291964       3.60520023       4.73312977         0.00000000       0.00000000       0.00000000          1
H         9.15909973       2.85117383       5.57274275         0.00000000       0.00000000       0.00000000          1
H        10.78895146       5.12113229       5.65976677         0.00000000       0.00000000       0.00000000          1
H        11.54214580       2.80429545       7.01525790         0.00000000       0.00000000       0.00000000          1
6
pbc=[F, F, F] list_num_par=6 energy=-1.27112500 iter=10000 frozen=false Lattice="15.00000000 0.00000000 0.00000000 0.00000000 15.00000000 0.00000000 0.00000000 0.00000000 15.00000000" energy_frozen_part=0.00000000 Properties=species:S:1:pos:R:3:velocities:R:3:Z:I:1
H         8.36062726       9.72664259       8.43400228         0.00000000       0.00000000       0.00000000          1
H         7.46480662       8.64465826      10.84666651         0.00000000       0.00000000       0.00000000          1
H         7.79058968      11.40419434      10.58858993         0.00000000       0.00000000       0.00000000          1
H         6.11678011      11.39029414       8.34721883         0.00000000       0.00000000       0.00000000          1
H         5.79541875       8.63311149       8.61493159         0.00000000       0.00000000       0.00000000          1
H         5.22343179      10.30976444      10.76882387         0.00000000       0.00000000       0.00000000          1
6
pbc=[F, F, F] list_num_par=6 energy=-1.27112507 iter=10000 frozen=false Lattice="15.00000000 0.00000000 0.00000000 0.00000000 15.00000000 0.00000000 0.00000000 0.00000000 15.00000000" energy_frozen_part=0.00000000 Properties=species:S:1:pos:R:3:velocities:R:3:Z:I:1
H         8.37183084       9.63386300       8.46661705         0.00000000       0.00000000       0.00000000          1
H         7.42409366       8.62735502      10.90223603         0.00000000       0.00000000       0.00000000          1
H         7.77538550      11.37788316      10.56305659         0.00000000       0.00000000       0.00000000          1
H         6.14981501      11.31348969       8.29173934         0.00000000       0.00000000       0.00000000          1
H         5.80178456       8.55566709       8.62437916         0.00000000       0.00000000       0.00000000          1
H         5.20261064      10.31220454      10.71947046         0.00000000       0.00000000       0.00000000          1
6
pbc=[F, F, F] list_num_par=6 energy=-1.27112523 iter=10000 frozen=false Lattice="15.00000000 0.00000000 0.00000000 0.00000000 15.00000000 0.00000000 0.00000000 0.00000000 15.00000000" energy_frozen_part=0.00000000 Properties=species:S:1:pos:R:3:velocities:R:3:Z:I:1
H         8.36281903       9.63560446       8.45818817         0.00000000       0.00000000       0.00000000          1
H         7.42724862       8.63025962      10.89013166         0.00000000       0.00000000       0.00000000          1
H         7.76612802      11.37929870      10.55375195         0.00000000       0.00000000       0.00000000          1
H         6.13296487      11.30019504       8.28908016         0.00000000       0.00000000       0.00000000          1
H         5.79347279       8.55037178       8.62901129         0.00000000       0.00000000       0.00000000          1
H         5.18792440      10.30443401      10.71727206         0.00000000       0.00000000       0.00000000          1
6
pbc=[F, F, F] list_num_par=6 energy=-1.27112533 iter=10000 frozen=false Lattice="15.00000000 0.00000000 0.00000000 0.00000000 15.00000000 0.00000000 0.00000000 0.00000000 15.00000000" energy_frozen_part=0.00000000 Properties=species:S:1:pos:R:3:velocities:R:3:Z:I:1
H         8.70398137       9.92729553       8.79776666         0.00000000       0.00000000       0.00000000          1
H         7.67385660       8.97609901      11.21845267         0.00000000       0.00000000       0.00000000          1
H         7.45152720      11.68588987      10.57085320         0.00000000       0.00000000       0.00000000          1
H         6.21205268      11.01370722       8.15872929         0.00000000       0.00000000       0.00000000          1
H         6.44028676       8.30869973       8.80442114         0.00000000       0.00000000       0.00000000          1
H         5.18253011      10.06166836      10.57664315         0.00000000       0.00000000       0.00000000          1
6
pbc=[F, F, F] list_num_par=6 energy=-1.27112542 iter=10000 frozen=false Lattice="15.00000000 0.00000000 0.00000000 0.00000000 15.00000000 0.00000000 0.00000000 0.00000000 15.00000000" energy_frozen_part=0.00000000 Properties=species:S:1:pos:R:3:velocities:R:3:Z:I:1
H        11.29793271       1.36756989       4.66368733         0.00000000       0.00000000       0.00000000          1
H        10.55610101       3.68647919       3.29442512         0.00000000       0.00000000       0.00000000          1
H        12.92807069       3.63122139       4.77491577         0.00000000       0.00000000       0.00000000          1
H         9.12083570       2.87533963       5.55543485         0.00000000       0.00000000       0.00000000          1
H        10.74879937       5.14713685       5.66840504         0.00000000       0.00000000       0.00000000          1
H        11.49805812       2.83241541       7.03627534         0.00000000       0.00000000       0.00000000          1
6
pbc=[F, F, F] list_num_par=6 energy=-1.27112569 iter=10000 frozen=false Lattice="15.00000000 0.00000000 0.00000000 0.00000000 15.00000000 0.00000000 0.00000000 0.00000000 15.00000000" energy_frozen_part=0.00000000 Properties=species:S:1:pos:R:3:velocities:R:3:Z:I:1
H        10.89304300       1.18648656       4.83004383         0.00000000       0.00000000       0.00000000          1
H        10.52710277       3.52376839       3.33664526         0.00000000       0.00000000       0.00000000          1
H        12.82269401       3.20190577       4.89870347         0.00000000       0.00000000       0.00000000          1
H         8.93362337       3.03522187       5.57723053         0.00000000       0.00000000       0.00000000          1
H        10.85959717       5.05090900       5.64338203         0.00000000       0.00000000       0.00000000          1
H        11.22129334       2.72091337       7.14158656         0.00000000       0.00000000       0.00000000          1
6
pbc=[F, F, F] list_num_par=6 energy=-1.27112581 iter=10000 frozen=false Lattice="15.00000000 0.00000000 0.00000000 0.00000000 15.00000000 0.00000000 0.00000000 0.00000000 15.00000000" energy_frozen_part=0.00000000 Properties=species:S:1:pos:R:3:velocities:R:3:Z:I:1
H        11.30164339       1.34331930       4.67942298         0.00000000       0.00000000       0.00000000          1
H        10.54503866       3.65633432       3.30336792         0.00000000       0.00000000       0.00000000          1
H        12.91353737       3.63192921       4.77552208         0.00000000       0.00000000       0.00000000          1
H         9.12125146       2.84923294       5.57035621         0.00000000       0.00000000       0.00000000          1
H        10.73439226       5.12790117       5.66543827         0.00000000       0.00000000       0.00000000          1
H        11.49217350       2.81623718       7.04328820         0.00000000       0.00000000       0.00000000          1
6
pbc=[F, F, F] list_num_par=6 energy=-1.27112589 iter=10000 frozen=false Lattice="15.00000000 0.00000000 0.00000000 0.00000000 15.00000000 0.00000000 0.00000000 0.00000000 15.00000000" energy_frozen_part=0.00000000 Properties=species:S:1:pos:R:3:velocities:R:3:Z:I:1
H         8.35070449       9.63093034       8.46654923         0.00000000       0.00000000       0.00000000          1
H         7.41135344       8.63406088      10.89358865         0.00000000       0.00000000       0.00000000          1